! Touchstone file exported from HFSS 2018.2.0
# GHZ S MA R 50.000000
! Modal data exported
! Port[1] = 1:1
! Port[2] = 2:1
0.2              0.997409433893276 85.1731021192007 4.21067496150457E-05 -5.6953354643959 4.21067496137891E-05 -5.69533546657873 0.997445625868058 84.4732830825033 
! Gamma         !               0                0                0                0                
! Port Impedance50               0                50               0                

0.2002           0.997404124988473 84.9829374348982 4.37013124305597E-05 -5.89028116095185 4.37013124292769E-05 -5.89028116297399 0.997440408264334 84.2836486741781 
! Gamma         !               0                0                0                0                
! Port Impedance50               0                50               0                

0.2004           0.997398628665029 84.790676762862  4.5371190363537E-05 -6.08740325966836 4.53711903622388E-05 -6.08740326160274 0.99743500479    84.0919335529783 
! Gamma         !               0                0                0                0                
! Port Impedance50               0                50               0                

0.2006           0.997392937800214 84.5962659719329 4.71206428376042E-05 -6.28675791474947 4.71206428363354E-05 -6.28675791656373 0.997429408386393 83.8980840325628 
! Gamma         !               0                0                0                0                
! Port Impedance50               0                50               0                

0.2008           0.99738704494399 84.3996490733    4.89542101456556E-05 -6.48840320711973 4.8954210144386E-05 -6.48840320892242 0.997423611670766 83.7020445869449 
! Gamma         !               0                0                0                0                
! Port Impedance50               0                50               0                

0.201            0.997380942301013 84.2007681394906 5.08767346390846E-05 -6.69239922863809 5.08767346378153E-05 -6.69239923035853 0.997417606918499 83.5037577703747 
! Gamma         !               0                0                0                0                
! Port Impedance50               0                50               0                

0.2012           0.997374621711485 83.9995632190515 5.28933837196876E-05 -6.89880817025055 5.28933837184271E-05 -6.89880817189492 0.997411386044153 83.3031641329647 
! Gamma         !               0                0                0                0                
! Port Impedance50               0                50               0                

0.2014           0.997368074630763 83.795972246651  5.50096748058349E-05 -7.10769441548071 5.50096748045627E-05 -7.10769441701956 0.997404940581298 83.100202131792  
! Gamma         !               0                0                0                0                
! Port Impedance50               0                50               0                

0.2016           0.99736129210762 83.5899309483089 5.72315024613112E-05 -7.31912463853122 5.7231502460062E-05 -7.3191246400486 0.997398261661013 82.8948080371887 
! Gamma         !               0                0                0                0                
! Port Impedance50               0                50               0                

0.2018           0.997354264761072 83.3813727414416 5.95651678967849E-05 -7.53316790816175 5.95651678955332E-05 -7.53316790958699 0.997391339988974 82.6869158339117 
! Gamma         !               0                0                0                0                
! Port Impedance50               0                50               0                

0.202            0.997346982755646 83.1702286293863 6.20174110740133E-05 -7.74989579684769 6.20174110727596E-05 -7.7498957981924 0.997384165820992 82.4764571168599 
! Gamma         !               0                0                0                0                
! Port Impedance50               0                50               0                

0.2022           0.997339435774989 82.9564270900427 6.4595445670529E-05 -7.96938249641101 6.45954456692675E-05 -7.96938249769832 0.997376728936911 82.2633609809823 
! Gamma         !               0                0                0                0                
! Port Impedance50               0                50               0                

0.2024           0.997331612993664 82.7398939582414 6.73069971877372E-05 -8.19170493991397 6.73069971864713E-05 -8.19170494111581 0.997369018612725 82.0475539049917 
! Gamma         !               0                0                0                0                
! Port Impedance50               0                50               0                

0.2026           0.997323503047004 82.5205523014209 7.01603445190152E-05 -8.4169429306811 7.01603445177646E-05 -8.41694293186334 0.997361023590771 81.828959628472  
! Gamma         !               0                0                0                0                
! Port Impedance50               0                50               0                

0.2028           0.997315093998872 82.2983222881618 7.31643653274477E-05 -8.64517927863802 7.31643653261765E-05 -8.64517927974907 0.997352732047851 81.607499021932  
! Gamma         !               0                0                0                0                
! Port Impedance50               0                50               0                

0.203            0.99730637330715 82.073121049088  7.63285856232245E-05 -8.87649994446039 7.63285856219904E-05 -8.87649994552679 0.997344131561111 81.3830899493249 
! Gamma         !               0                0                0                0                
! Port Impedance50               0                50               0                

0.2032           0.997297327786779 81.8448625296129 7.96632339751729E-05 -9.11099419239442 7.96632339739099E-05 -9.11099419340233 0.997335209071505 81.1556471225155 
! Gamma         !               0                0                0                0                
! Port Impedance50               0                50               0                

0.2034           0.997287943570138 81.6134573339573 8.31793008384716E-05 -9.34875475192211 8.31793008372374E-05 -9.34875475288939 0.997325950844629 80.9250819471344 
! Gamma         !               0                0                0                0                
! Port Impedance50               0                50               0                

0.2036           0.997278206064557 81.3788125598304 8.68886035393804E-05 -9.58987798933895 8.68886035381351E-05 -9.58987799025303 0.99731634242872 80.6913023592119 
! Gamma         !               0                0                0                0                
! Port Impedance50               0                50               0                

0.2038           0.997268099906709 81.140831623103  9.08038575180093E-05 -9.83446408946599 9.08038575167729E-05 -9.8344640903357 0.997306368609584 80.4542126519388 
! Gamma         !               0                0                0                0                
! Port Impedance50               0                50               0                

0.204            0.997257608913629 80.8994140717581 9.49387545025189E-05 -10.0826172486583 9.49387545012784E-05 -10.0826172494725 0.997296013362172 80.2137132918407 
! Gamma         !               0                0                0                0                
! Port Impedance50               0                50               0                

0.2042           0.997246716030052 80.6544553883356 9.93080483681118E-05 -10.3344458796305 9.9308048366865E-05 -10.3344458804166 0.997285259798549 79.969700723601  
! Gamma         !               0                0                0                0                
! Port Impedance50               0                50               0                

0.2044           0.997235403271768 80.4058467800268 0.000103927649524438 -10.5900628292306 0.000103927649523185 -10.5900628299602 0.99727409011191 79.7220671626937 
! Gamma         !               0                0                0                0                
! Port Impedance50               0                50               0                

0.2046           0.997223651664647 80.1534749554979 0.000108814728777538 -10.8495856098288 0.000108814728776307 -10.8495856105324 0.997262485516316 79.470700374924  
! Gamma         !               0                0                0                0                
! Port Impedance50               0                50               0                

0.2048           0.997211441178918 79.8972218874462 0.0001139878317295 -11.1131366455761 0.000113987831728248 -11.1131366462414 0.997250426181774 79.2154834418897 
! Gamma         !               0                0                0                0                
! Port Impedance50               0                50               0                

0.205            0.997198750658319 79.636964559802  0.000119467004909738 -11.3808435345971 0.000119467004908527 -11.3808435352361 0.997237891164213 78.9562945112954 
! Gamma         !               0                0                0                0                
! Port Impedance50               0                50               0                

0.2052           0.997185557743619 79.3725746983925 0.000125273934983008 -11.6528393283156 0.000125273934981761 -11.6528393289091 0.997224858329943 78.6930065309516 
! Gamma         !               0                0                0                0                
! Port Impedance50               0                50               0                

0.2054           0.99717183879001 79.1039184837828 0.000131432102548985 -11.9292628292692 0.000131432102547765 -11.9292628298269 0.997211304274029 78.4254869651906 
! Gamma         !               0                0                0                0                
! Port Impedance50               0                50               0                

0.2056           0.997157568777791 78.8308562448836 0.000137966952243728 -12.2102589088535 0.000137966952242503 -12.2102589093733 0.997197204232068 78.1535974923131 
! Gamma         !               0                0                0                0                
! Port Impedance50               0                50               0                

0.2058           0.997142721215714 78.5532421317949 0.000144906081074073 -12.4959788466685 0.000144906081072852 -12.4959788471536 0.997182531984709 77.877193681553  
! Gamma         !               0                0                0                0                
! Port Impedance50               0                50               0                

0.206            0.99712726803629 78.2709237662046 0.000152279447171157 -12.7865806930528 0.000152279447169964 -12.7865806935264 0.997167259754249 77.5961246479058 
! Gamma         !               0                0                0                0                
! Port Impedance50               0                50               0                

0.2062           0.997111179482287 77.9837418675067 0.000160119601438416 -13.0822296569122 0.000160119601437171 -13.082229657345 0.997151358092516 77.3102326830129 
! Gamma         !               0                0                0                0                
! Port Impedance50               0                50               0                

0.2064           0.997094423983532 77.6915298526279 0.000168461944902574 -13.3830985206674 0.000168461944901365 -13.3830985210692 0.997134795759215 77.0193528601179 
! Gamma         !               0                0                0                0                
! Port Impedance50               0                50               0                

0.2066           0.997076968023085 77.394113407355  0.00017734501495899 -13.6893680849362 0.00017734501495777 -13.689368085333 0.997117539589752 76.7233126109218 
! Gamma         !               0                0                0                0                
! Port Impedance50               0                50               0                

0.2068           0.997058775991704 77.091310026739  0.000186810804139897 -14.0012276452275 0.000186810804138655 -14.0012276455897 0.997099554351523 76.421931271948  
! Gamma         !               0                0                0                0                
! Port Impedance50               0                50               0                

0.207            0.997039810029386 76.7829285219149 0.000196905115542493 -14.318875503366 0.000196905115541293 -14.3188755037084 0.997080802587454 76.1150195977965 
! Gamma         !               0                0                0                0                
! Port Impedance50               0                50               0                

0.2072           0.997020029852692 76.4687684904013 0.000207677959634978 -14.6425195169809 0.000207677959633719 -14.6425195173147 0.997061244445498 75.802379238393  
! Gamma         !               0                0                0                0                
! Port Impedance50               0                50               0                

0.2074           0.996999392566327 76.1486197466506 0.000219183997833581 -14.9723776901176 0.000219183997832338 -14.9723776904156 0.99704083749261 75.4838021770553 
! Gamma         !               0                0                0                0                
! Port Impedance50               0                50               0                

0.2076           0.996977852457318 75.8222617092807 0.000231483039024467 -15.3086788087889 0.000231483039023223 -15.3086788090713 0.997019536511551 75.1590701258586 
! Gamma         !               0                0                0                0                
! Port Impedance50               0                50               0                

0.2078           0.996955360769922 75.4894627410483 0.000244640596106804 -15.6516631256433 0.000244640596105554 -15.6516631258974 0.996997293278671 74.8279538744208 
! Gamma         !               0                0                0                0                
! Port Impedance50               0                50               0                

0.208            0.996931865459123 75.1499794372016 0.000258728510685934 -16.001583098055 0.000258728510684694 -16.0015830982948 0.996974056320595 74.4902125878114 
! Gamma         !               0                0                0                0                
! Port Impedance50               0                50               0                

0.2082           0.996907310920385 74.8035558573793 0.000273825655266196 -16.3587041849195 0.000273825655264995 -16.3587041851499 0.996949770647455 74.1455930488224 
! Gamma         !               0                0                0                0                
! Port Impedance50               0                50               0                

0.2084           0.996881637692948 74.4499226956915 0.000290018723718806 -16.7233057074776 0.000290018723717575 -16.7233057076911 0.996924377460042 73.7938288393222 
! Gamma         !               0                0                0                0                
! Port Impedance50               0                50               0                

0.2086           0.996854782133644 74.0887963830221 0.000307403122464244 -17.0956817805238 0.00030740312246298 -17.0956817807214 0.996897813827885 73.434639454818  
! Gamma         !               0                0                0                0                
! Port Impedance50               0                50               0                

0.2088           0.996826676057817 73.7198781149162 0.000326083976756785 -17.4761423208266 0.000326083976755579 -17.4761423210117 0.996870012334861 73.0677293456964 
! Gamma         !               0                0                0                0                
! Port Impedance50               0                50               0                

0.209            0.996797246343441 73.3428527976535 0.000346177268743622 -17.8650141403792 0.000346177268742398 -17.8650141405515 0.996840900688528 72.6927868778536 
! Gamma         !               0                0                0                0                
! Port Impedance50               0                50               0                

0.2092           0.996766414494016 72.9573879042474 0.000367811126655103 -18.262642133213 0.000367811126653897 -18.2626421333722 0.996810401288785 72.3094832045824 
! Gamma         !               0                0                0                0                
! Port Impedance50               0                50               0                

0.2094           0.996734096155208 72.5631322311238 0.000391127287646972 -18.669390565198 0.000391127287645738 -18.6693905653423 0.996778430750922 71.9174710406146 
! Gamma         !               0                0                0                0                
! Port Impedance50               0                50               0                

0.2096           0.996700200579475 72.159714545127  0.000416282760546225 -19.0856444776714 0.000416282760544981 -19.0856444778036 0.996744899377364 71.5163833281214 
! Gamma         !               0                0                0                0                
! Port Impedance50               0                50               0                

0.2098           0.996664630032105 71.7467421092205 0.000443451719169997 -19.5118112169568 0.000443451719168771 -19.5118112170791 0.996709710571629 71.1058317832249 
! Gamma         !               0                0                0                0                
! Port Impedance50               0                50               0                

0.21             0.996627279131101 71.3237990738079 0.0004728276621242 -19.9483221033759 0.000472827662122987 -19.9483221034865 0.996672760187054 70.6854053101447 
! Gamma         !               0                0                0                0                
! Port Impedance50               0                50               0                

0.2102           0.996588034112253 70.8904447189357 0.000504625881213943 -20.3956342549363 0.000504625881212665 -20.3956342550377 0.996633935801731 70.2546682684706 
! Gamma         !               0                0                0                0                
! Port Impedance50               0                50               0                

0.2104           0.996546772009388 70.4462115307344 0.000539086288017417 -20.8542325831621 0.000539086288016179 -20.85423258325  0.996593115909787 69.8131585771777 
! Gamma         !               0                0                0                0                
! Port Impedance50               0                50               0                

0.2106           0.996503359738223 69.9906030932704 0.000576476657040049 -21.3246319804106 0.000576476657038811 -21.3246319804938 0.996550169017597 69.3603856368478 
! Gamma         !               0                0                0                0                
! Port Impedance50               0                50               0                

0.2108           0.996457653070457 69.5230917744537 0.000617096354483562 -21.807379721056 0.000617096354482329 -21.8073797211391 0.996504952631742 68.8958280490736 
! Gamma         !               0                0                0                0                
! Port Impedance50               0                50               0                

0.211            0.996409495482492 69.0431161817339 0.000661280634420387 -22.3030581015705 0.000661280634419145 -22.3030581016406 0.996457312123322 68.4189311091582 
! Gamma         !               0                0                0                0                
! Port Impedance50               0                50               0                

0.2112           0.996358716860672 68.5500783599407 0.000709405599529098 -22.8122873482548 0.000709405599527912 -22.8122873483233 0.996407079450741 67.9291040448933 
! Gamma         !               0                0                0                0                
! Port Impedance50               0                50               0                

0.2114           0.996305132041794 68.0433406997038 0.000761893942106484 -23.3357288255127 0.000761893942105285 -23.3357288255721 0.996354071720021 67.4257169703441 
! Gamma         !               0                0                0                0                
! Port Impedance50               0                50               0                

0.2116           0.99624853916399 67.5222225203161 0.000819221603563661 -23.8740885820015 0.000819221603562442 -23.8740885820543 0.996298089558067 66.9080975190647 
! Gamma         !               0                0                0                0                
! Port Impedance50               0                50               0                

0.2118           0.996188717798673 66.985996285568  0.000881925517949233 -24.4281212779134 0.000881925517947958 -24.4281212779595 0.996238915269963 66.3755271159175 
! Gamma         !               0                0                0                0                
! Port Impedance50               0                50               0                

0.212            0.996125426828902 66.4338834048285 0.000950612638374259 -24.9986345428332 0.000950612638372999 -24.9986345428747 0.996176310746097 65.8272368405096 
! Gamma         !               0                0                0                0                
! Port Impedance50               0                50               0                

0.2122           0.996058402033053 65.8650495642888 0.00102597048599188 -25.5864938214542 0.00102597048599065 -25.5864938214907 0.99611001507855 65.2624028280162 
! Gamma         !               0                0                0                0                
! Port Impedance50               0                50               0                

0.2124           0.995987353324878 65.2785995246186 0.00110877951124282 -26.1926277733725 0.0011087795112416 -26.192627773403 0.996039741838446 64.6801411446237 
! Gamma         !               0                0                0                0                
! Port Impedance50               0                50               0                

0.2126           0.995911961591398 64.6735713110117 0.00119992761874806 -26.8180343037952 0.00119992761874682 -26.8180343038235 0.995965175956425 64.0795020647074 
! Gamma         !               0                0                0                0                
! Port Impedance50               0                50               0                

0.2128           0.995831875058275 64.04892970941   0.00130042728348515 -27.4637873148226 0.00130042728348397 -27.4637873148505 0.995885970136797 63.4594636648541 
! Gamma         !               0                0                0                0                
! Port Impedance50               0                50               0                

0.213            0.995746705097784 63.4035589681456 0.00141143578053702 -28.1310442818948 0.0014114357805358 -28.1310442819182 0.995801740721486 62.8189246355085 
! Gamma         !               0                0                0                0                
! Port Impedance50               0                50               0                

0.2132           0.995656021376341 62.7362545868388 0.00153427916865285 -28.8210547782117 0.00153427916865166 -28.8210547782323 0.995712062901963 62.1566961938716 
! Gamma         !               0                0                0                0                
! Port Impedance50               0                50               0                

0.2134           0.995559346215919 62.0457140534629 0.00167048081546065 -29.5351700916486 0.00167048081545945 -29.5351700916657 0.995616465154983 61.4714929610653 
! Gamma         !               0                0                0                0                
! Port Impedance50               0                50               0                

0.2136           0.995456148015245 61.3305263652156 0.00182179543765597 -30.274854104908 0.00182179543765479 -30.2748541049233 0.99551442274974 60.7619226416656 
! Gamma         !               0                0                0                0                
! Port Impedance50               0                50               0                

0.2138           0.995345833540531 60.5891601382074 0.00199024986363559 -31.0416956415569 0.0019902498636344 -31.0416956415693 0.995405350138332 60.0264743135181 
! Gamma         !               0                0                0                0                
! Port Impedance50               0                50               0                

0.214            0.995227738849584 59.819950073623  0.00217819202298938 -31.8374225193372 0.00217819202298825 -31.8374225193505 0.995288591995904 59.2635050989203 
! Gamma         !               0                0                0                0                
! Port Impedance50               0                50               0                

0.2142           0.995101118553976 59.0210815022873 0.00238835004567795 -32.6639175997217 0.0023883500456768 -32.6639175997305 0.995163412618247 58.4712249431711 
! Gamma         !               0                0                0                0                
! Port Impedance50               0                50               0                

0.2144           0.994965133047493 58.1905726732511 0.0026239038384039 -33.5232371811642 0.00262390383840276 -33.5232371811739 0.995028983308793 57.6476791709372 
! Gamma         !               0                0                0                0                
! Port Impedance50               0                50               0                

0.2146           0.994818833229123 57.3262543822933 0.00288857212976297 -34.4176321559999 0.00288857212976181 -34.4176321560082 0.994884367287863 56.7907284221146 
! Gamma         !               0                0                0                0                
! Port Impedance50               0                50               0                

0.2148           0.994661142117311 56.4257464493981 0.00318671878376715 -35.349572441082 0.00318671878376597 -35.3495724410877 0.994728501526457 55.8980254831725 
! Gamma         !               0                0                0                0                
! Port Impedance50               0                50               0                

0.215            0.994490832577202 55.4864304454576 0.00352348323352867 -36.3217753054241 0.00352348323352751 -36.3217753054289 0.994560174733222 54.9669884225711 
! Gamma         !               0                0                0                0                
! Port Impedance50               0                50               0                

0.2152           0.994306500147864 54.5054179311781 0.00390494126538864 -37.3372383606444 0.00390494126538743 -37.3372383606481 0.994378000490088 53.9947693033249 
! Gamma         !               0                0                0                0                
! Port Impedance50               0                50               0                

0.2154           0.994106529637985 53.4795132968365 0.00433830420121047 -38.3992781611437 0.00433830420120919 -38.3992781611464 0.994180384215636 52.9782175736064 
! Gamma         !               0                0                0                0                
! Port Impedance50               0                50               0                

0.2156           0.993889053722046 52.4051700684523 0.00483216693868862 -39.5115755926729 0.00483216693868745 -39.5115755926765 0.993965482201402 51.9138370159214 
! Gamma         !               0                0                0                0                
! Port Impedance50               0                50               0                

0.2158           0.993651901163737 51.2784392583079 0.00539681853330565 -40.678229526687 0.00539681853330445 -40.6782295266893 0.993731150364399 50.7977348511329 
! Gamma         !               0                0                0                0                
! Port Impedance50               0                50               0                

0.216            0.993392531444117 50.094907963788  0.00604463334578914 -41.9038206061808 0.00604463334578775 -41.9038206061823 0.993474879514256 49.6255612239346 
! Gamma         !               0                0                0                0                
! Port Impedance50               0                50               0                

0.2162           0.993107951365348 48.8496259280669 0.00679056666732349 -43.1934875379568 0.00679056666732212 -43.1934875379581 0.99319371273219 48.3924368113635 
! Gamma         !               0                0                0                0                
! Port Impedance50               0                50               0                

0.2164           0.992794607463544 47.5370171269998 0.00765278678846753 -44.5530189400942 0.00765278678846635 -44.5530189400961 0.992884138729025 47.092865653714  
! Gamma         !               0                0                0                0                
! Port Impedance50               0                50               0                

0.2166           0.992448245527967 46.150772578805  0.00865348658699371 -45.9889646940041 0.00865348658699234 -45.9889646940044 0.992541952522638 45.7206294483795 
! Gamma         !               0                0                0                0                